<?xml version="1.0" encoding="UTF-8"?>

<!-- generated on 2023-03-03 13:37:18 by Eclipse SUMO GUI Version 1.16.0
<configuration xmlns:xsi="http://www.w3.org/2001/XMLSchema-instance" xsi:noNamespaceSchemaLocation="http://sumo.dlr.de/xsd/sumoConfiguration.xsd">

    <input>
        <net-file value="data/test.net.xml"/>
        <route-files value="data/test.rou.xml"/>
        <additional-files value="data/test.add.xml"/>
        <junction-taz value="true"/>
    </input>

    <output>
        <tripinfo-output value="tripinfo.xml"/>
    </output>

    <traci_server>
        <remote-port value="19834"/>
    </traci_server>

</configuration>
-->

<tripinfos xmlns:xsi="http://www.w3.org/2001/XMLSchema-instance" xsi:noNamespaceSchemaLocation="http://sumo.dlr.de/xsd/tripinfo_file.xsd">
    <tripinfo id="f_10.0" depart="0.00" departLane="-E5_0" departPos="5.10" departSpeed="0.00" departDelay="0.00" arrival="26.00" arrivalLane="E1_0" arrivalPos="148.39" arrivalSpeed="13.61" duration="26.00" routeLength="296.24" waitingTime="0.00" waitingCount="0" stopTime="0.00" timeLoss="3.97" rerouteNo="1" devices="tripinfo_f_10.0 routing_f_10.0" vType="DEFAULT_VEHTYPE" speedFactor="1.01" vaporized=""/>
    <tripinfo id="f_8.0" depart="1.00" departLane="-E4_0" departPos="5.10" departSpeed="0.00" departDelay="0.00" arrival="26.00" arrivalLane="E3_0" arrivalPos="96.10" arrivalSpeed="15.02" duration="25.00" routeLength="294.58" waitingTime="0.00" waitingCount="0" stopTime="0.00" timeLoss="4.12" rerouteNo="1" devices="tripinfo_f_8.0 routing_f_8.0" vType="DEFAULT_VEHTYPE" speedFactor="1.08" vaporized=""/>
    <tripinfo id="f_11.0" depart="3.00" departLane="-E5_0" departPos="5.10" departSpeed="0.00" departDelay="1.00" arrival="28.00" arrivalLane="E3_0" arrivalPos="96.10" arrivalSpeed="13.99" duration="25.00" routeLength="291.05" waitingTime="0.00" waitingCount="0" stopTime="0.00" timeLoss="4.08" rerouteNo="1" devices="tripinfo_f_11.0 routing_f_11.0" vType="DEFAULT_VEHTYPE" speedFactor="1.03" vaporized=""/>
    <tripinfo id="f_8.1" depart="7.00" departLane="-E4_0" departPos="5.10" departSpeed="0.00" departDelay="0.00" arrival="32.00" arrivalLane="E3_0" arrivalPos="96.10" arrivalSpeed="13.39" duration="25.00" routeLength="294.58" waitingTime="0.00" waitingCount="0" stopTime="0.00" timeLoss="4.25" rerouteNo="1" devices="tripinfo_f_8.1 routing_f_8.1" vType="DEFAULT_VEHTYPE" speedFactor="1.05" vaporized=""/>
    <tripinfo id="f_11.1" depart="11.00" departLane="-E5_0" departPos="5.10" departSpeed="0.00" departDelay="0.00" arrival="39.00" arrivalLane="E3_0" arrivalPos="96.10" arrivalSpeed="11.62" duration="28.00" routeLength="291.05" waitingTime="0.00" waitingCount="0" stopTime="0.00" timeLoss="3.86" rerouteNo="1" devices="tripinfo_f_11.1 routing_f_11.1" vType="DEFAULT_VEHTYPE" speedFactor="0.89" vaporized=""/>
    <tripinfo id="f_3.0" depart="26.00" departLane="-E3_0" departPos="5.10" departSpeed="0.00" departDelay="1.00" arrival="54.00" arrivalLane="E5_0" arrivalPos="92.53" arrivalSpeed="11.91" duration="28.00" routeLength="298.84" waitingTime="0.00" waitingCount="0" stopTime="0.00" timeLoss="4.26" rerouteNo="1" devices="tripinfo_f_3.0 routing_f_3.0" vType="DEFAULT_VEHTYPE" speedFactor="0.94" vaporized=""/>
    <tripinfo id="f_1.0" depart="30.00" departLane="-E1_0" departPos="5.10" departSpeed="0.00" departDelay="0.00" arrival="56.00" arrivalLane="E4_0" arrivalPos="90.56" arrivalSpeed="13.29" duration="26.00" routeLength="299.56" waitingTime="0.00" waitingCount="0" stopTime="0.00" timeLoss="3.88" rerouteNo="1" devices="tripinfo_f_1.0 routing_f_1.0" vType="DEFAULT_VEHTYPE" speedFactor="1.02" vaporized=""/>
    <tripinfo id="f_0.0" depart="13.00" departLane="-E1_0" departPos="5.10" departSpeed="0.00" departDelay="0.00" arrival="67.00" arrivalLane="E5_0" arrivalPos="92.53" arrivalSpeed="10.79" duration="54.00" routeLength="288.61" waitingTime="20.00" waitingCount="1" stopTime="0.00" timeLoss="28.16" rerouteNo="1" devices="tripinfo_f_0.0 routing_f_0.0" vType="DEFAULT_VEHTYPE" speedFactor="0.86" vaporized=""/>
    <tripinfo id="f_0.1" depart="20.00" departLane="-E1_0" departPos="5.10" departSpeed="0.00" departDelay="0.00" arrival="68.00" arrivalLane="E5_0" arrivalPos="92.53" arrivalSpeed="12.20" duration="48.00" routeLength="288.61" waitingTime="15.00" waitingCount="1" stopTime="0.00" timeLoss="28.73" rerouteNo="1" devices="tripinfo_f_0.1 routing_f_0.1" vType="DEFAULT_VEHTYPE" speedFactor="1.12" vaporized=""/>
    <tripinfo id="f_2.0" depart="0.00" departLane="-E1_0" departPos="5.10" departSpeed="0.00" departDelay="0.00" arrival="70.00" arrivalLane="E3_0" arrivalPos="96.10" arrivalSpeed="14.40" duration="70.00" routeLength="395.94" waitingTime="34.00" waitingCount="1" stopTime="0.00" timeLoss="42.76" rerouteNo="1" devices="tripinfo_f_2.0 routing_f_2.0" vType="DEFAULT_VEHTYPE" speedFactor="1.06" vaporized=""/>
    <tripinfo id="f_5.0" depart="0.00" departLane="-E3_0" departPos="5.10" departSpeed="0.00" departDelay="0.00" arrival="72.00" arrivalLane="E1_0" arrivalPos="148.39" arrivalSpeed="12.36" duration="72.00" routeLength="393.01" waitingTime="31.00" waitingCount="1" stopTime="0.00" timeLoss="41.40" rerouteNo="1" devices="tripinfo_f_5.0 routing_f_5.0" vType="DEFAULT_VEHTYPE" speedFactor="0.94" vaporized=""/>
    <tripinfo id="f_5.1" depart="6.00" departLane="-E3_0" departPos="5.10" departSpeed="0.00" departDelay="0.00" arrival="76.00" arrivalLane="E1_0" arrivalPos="148.39" arrivalSpeed="11.16" duration="70.00" routeLength="393.01" waitingTime="27.00" waitingCount="1" stopTime="0.00" timeLoss="35.60" rerouteNo="1" devices="tripinfo_f_5.1 routing_f_5.1" vType="DEFAULT_VEHTYPE" speedFactor="0.83" vaporized=""/>
    <tripinfo id="f_2.1" depart="37.00" departLane="-E1_0" departPos="5.10" departSpeed="0.00" departDelay="0.00" arrival="77.00" arrivalLane="E3_0" arrivalPos="96.10" arrivalSpeed="12.77" duration="40.00" routeLength="395.94" waitingTime="1.00" waitingCount="1" stopTime="0.00" timeLoss="10.95" rerouteNo="1" devices="tripinfo_f_2.1 routing_f_2.1" vType="DEFAULT_VEHTYPE" speedFactor="1.01" vaporized=""/>
    <tripinfo id="f_5.2" depart="17.00" departLane="-E3_0" departPos="5.10" departSpeed="0.00" departDelay="0.00" arrival="78.00" arrivalLane="E1_0" arrivalPos="148.39" arrivalSpeed="14.23" duration="61.00" routeLength="393.01" waitingTime="20.00" waitingCount="1" stopTime="0.00" timeLoss="32.70" rerouteNo="1" devices="tripinfo_f_5.2 routing_f_5.2" vType="DEFAULT_VEHTYPE" speedFactor="1.03" vaporized=""/>
    <tripinfo id="f_5.3" depart="20.00" departLane="-E3_0" departPos="5.10" departSpeed="0.00" departDelay="2.00" arrival="79.00" arrivalLane="E1_0" arrivalPos="148.39" arrivalSpeed="13.64" duration="59.00" routeLength="393.01" waitingTime="18.00" waitingCount="1" stopTime="0.00" timeLoss="31.99" rerouteNo="1" devices="tripinfo_f_5.3 routing_f_5.3" vType="DEFAULT_VEHTYPE" speedFactor="1.05" vaporized=""/>
    <tripinfo id="f_5.4" depart="23.00" departLane="-E3_0" departPos="5.10" departSpeed="0.00" departDelay="3.00" arrival="81.00" arrivalLane="E1_0" arrivalPos="148.39" arrivalSpeed="13.75" duration="58.00" routeLength="393.01" waitingTime="16.00" waitingCount="1" stopTime="0.00" timeLoss="29.18" rerouteNo="1" devices="tripinfo_f_5.4 routing_f_5.4" vType="DEFAULT_VEHTYPE" speedFactor="0.99" vaporized=""/>
    <tripinfo id="f_2.2" depart="41.00" departLane="-E1_0" departPos="5.10" departSpeed="0.00" departDelay="0.00" arrival="81.00" arrivalLane="E3_0" arrivalPos="96.10" arrivalSpeed="11.44" duration="40.00" routeLength="395.94" waitingTime="0.00" waitingCount="0" stopTime="0.00" timeLoss="7.27" rerouteNo="1" devices="tripinfo_f_2.2 routing_f_2.2" vType="DEFAULT_VEHTYPE" speedFactor="0.89" vaporized=""/>
    <tripinfo id="f_5.5" depart="39.00" departLane="-E3_0" departPos="5.10" departSpeed="0.00" departDelay="0.00" arrival="83.00" arrivalLane="E1_0" arrivalPos="148.39" arrivalSpeed="13.15" duration="44.00" routeLength="393.01" waitingTime="2.00" waitingCount="1" stopTime="0.00" timeLoss="14.55" rerouteNo="1" devices="tripinfo_f_5.5 routing_f_5.5" vType="DEFAULT_VEHTYPE" speedFactor="0.97" vaporized=""/>
    <tripinfo id="f_5.6" depart="49.00" departLane="-E3_0" departPos="5.10" departSpeed="0.00" departDelay="0.00" arrival="88.00" arrivalLane="E1_0" arrivalPos="148.39" arrivalSpeed="10.69" duration="39.00" routeLength="393.01" waitingTime="0.00" waitingCount="0" stopTime="0.00" timeLoss="4.74" rerouteNo="1" devices="tripinfo_f_5.6 routing_f_5.6" vType="DEFAULT_VEHTYPE" speedFactor="0.83" vaporized=""/>
    <tripinfo id="f_4.0" depart="68.00" departLane="-E3_0" departPos="5.10" departSpeed="0.00" departDelay="0.00" arrival="92.00" arrivalLane="E4_0" arrivalPos="90.56" arrivalSpeed="15.91" duration="24.00" routeLength="284.31" waitingTime="0.00" waitingCount="0" stopTime="0.00" timeLoss="5.60" rerouteNo="1" devices="tripinfo_f_4.0 routing_f_4.0" vType="DEFAULT_VEHTYPE" speedFactor="1.18" vaporized=""/>
    <tripinfo id="f_5.7" depart="61.00" departLane="-E3_0" departPos="5.10" departSpeed="0.00" departDelay="0.00" arrival="96.00" arrivalLane="E1_0" arrivalPos="148.39" arrivalSpeed="12.81" duration="35.00" routeLength="393.01" waitingTime="0.00" waitingCount="0" stopTime="0.00" timeLoss="4.37" rerouteNo="1" devices="tripinfo_f_5.7 routing_f_5.7" vType="DEFAULT_VEHTYPE" speedFactor="0.95" vaporized=""/>
    <tripinfo id="f_5.8" depart="76.00" departLane="-E3_0" departPos="5.10" departSpeed="0.00" departDelay="0.00" arrival="109.00" arrivalLane="E1_0" arrivalPos="148.39" arrivalSpeed="13.78" duration="33.00" routeLength="393.01" waitingTime="0.00" waitingCount="0" stopTime="0.00" timeLoss="4.40" rerouteNo="1" devices="tripinfo_f_5.8 routing_f_5.8" vType="DEFAULT_VEHTYPE" speedFactor="0.99" vaporized=""/>
    <tripinfo id="f_9.0" depart="14.00" departLane="-E5_0" departPos="5.10" departSpeed="0.00" departDelay="2.00" arrival="111.00" arrivalLane="E4_0" arrivalPos="90.56" arrivalSpeed="12.09" duration="97.00" routeLength="196.93" waitingTime="73.00" waitingCount="1" stopTime="0.00" timeLoss="81.31" rerouteNo="1" devices="tripinfo_f_9.0 routing_f_9.0" vType="DEFAULT_VEHTYPE" speedFactor="0.94" vaporized=""/>
    <tripinfo id="f_11.2" depart="17.00" departLane="-E5_0" departPos="5.10" departSpeed="0.00" departDelay="1.00" arrival="118.00" arrivalLane="E3_0" arrivalPos="96.10" arrivalSpeed="14.55" duration="101.00" routeLength="291.05" waitingTime="72.00" waitingCount="1" stopTime="0.00" timeLoss="81.55" rerouteNo="1" devices="tripinfo_f_11.2 routing_f_11.2" vType="DEFAULT_VEHTYPE" speedFactor="1.09" vaporized=""/>
    <tripinfo id="f_7.0" depart="22.00" departLane="-E4_0" departPos="5.10" departSpeed="0.00" departDelay="0.00" arrival="119.00" arrivalLane="E1_0" arrivalPos="148.39" arrivalSpeed="11.71" duration="97.00" routeLength="288.57" waitingTime="63.00" waitingCount="1" stopTime="0.00" timeLoss="72.19" rerouteNo="1" devices="tripinfo_f_7.0 routing_f_7.0" vType="DEFAULT_VEHTYPE" speedFactor="0.88" vaporized=""/>
    <tripinfo id="f_10.1" depart="20.00" departLane="-E5_0" departPos="5.10" departSpeed="0.00" departDelay="0.00" arrival="123.00" arrivalLane="E1_0" arrivalPos="148.39" arrivalSpeed="12.25" duration="103.00" routeLength="296.24" waitingTime="70.00" waitingCount="1" stopTime="0.00" timeLoss="79.34" rerouteNo="1" devices="tripinfo_f_10.1 routing_f_10.1" vType="DEFAULT_VEHTYPE" speedFactor="0.93" vaporized=""/>
    <tripinfo id="f_6.0" depart="66.00" departLane="-E4_0" departPos="5.10" departSpeed="0.00" departDelay="0.00" arrival="124.00" arrivalLane="E5_0" arrivalPos="92.53" arrivalSpeed="15.20" duration="58.00" routeLength="196.65" waitingTime="25.00" waitingCount="1" stopTime="0.00" timeLoss="45.15" rerouteNo="1" devices="tripinfo_f_6.0 routing_f_6.0" vType="DEFAULT_VEHTYPE" speedFactor="1.13" vaporized=""/>
    <tripinfo id="f_10.2" depart="23.00" departLane="-E5_0" departPos="5.10" departSpeed="0.00" departDelay="1.00" arrival="125.00" arrivalLane="E1_0" arrivalPos="148.39" arrivalSpeed="12.01" duration="102.00" routeLength="296.24" waitingTime="69.00" waitingCount="1" stopTime="0.00" timeLoss="78.64" rerouteNo="1" devices="tripinfo_f_10.2 routing_f_10.2" vType="DEFAULT_VEHTYPE" speedFactor="0.94" vaporized=""/>
    <tripinfo id="f_8.2" depart="49.00" departLane="-E4_0" departPos="5.10" departSpeed="0.00" departDelay="0.00" arrival="125.00" arrivalLane="E3_0" arrivalPos="96.10" arrivalSpeed="11.32" duration="76.00" routeLength="294.58" waitingTime="40.00" waitingCount="2" stopTime="0.00" timeLoss="50.83" rerouteNo="1" devices="tripinfo_f_8.2 routing_f_8.2" vType="DEFAULT_VEHTYPE" speedFactor="0.87" vaporized=""/>
    <tripinfo id="f_9.1" depart="76.00" departLane="-E5_0" departPos="5.10" departSpeed="0.00" departDelay="0.00" arrival="126.00" arrivalLane="E4_0" arrivalPos="90.56" arrivalSpeed="13.20" duration="50.00" routeLength="196.93" waitingTime="22.00" waitingCount="1" stopTime="0.00" timeLoss="35.56" rerouteNo="1" devices="tripinfo_f_9.1 routing_f_9.1" vType="DEFAULT_VEHTYPE" speedFactor="1.02" vaporized=""/>
    <tripinfo id="f_11.3" depart="26.00" departLane="-E5_0" departPos="5.10" departSpeed="0.00" departDelay="1.00" arrival="127.00" arrivalLane="E3_0" arrivalPos="96.10" arrivalSpeed="15.27" duration="101.00" routeLength="291.05" waitingTime="66.00" waitingCount="1" stopTime="0.00" timeLoss="81.81" rerouteNo="1" devices="tripinfo_f_11.3 routing_f_11.3" vType="DEFAULT_VEHTYPE" speedFactor="1.16" vaporized=""/>
    <tripinfo id="f_11.4" depart="71.00" departLane="-E5_0" departPos="5.10" departSpeed="0.00" departDelay="0.00" arrival="129.00" arrivalLane="E3_0" arrivalPos="96.10" arrivalSpeed="15.95" duration="58.00" routeLength="291.05" waitingTime="25.00" waitingCount="1" stopTime="0.00" timeLoss="39.54" rerouteNo="1" devices="tripinfo_f_11.4 routing_f_11.4" vType="DEFAULT_VEHTYPE" speedFactor="1.17" vaporized=""/>
    <tripinfo id="f_7.1" depart="54.00" departLane="-E4_0" departPos="5.10" departSpeed="0.00" departDelay="0.00" arrival="130.00" arrivalLane="E1_0" arrivalPos="148.39" arrivalSpeed="11.81" duration="76.00" routeLength="288.57" waitingTime="36.00" waitingCount="2" stopTime="0.00" timeLoss="51.93" rerouteNo="1" devices="tripinfo_f_7.1 routing_f_7.1" vType="DEFAULT_VEHTYPE" speedFactor="0.92" vaporized=""/>
    <tripinfo id="f_10.3" depart="66.00" departLane="-E5_0" departPos="5.10" departSpeed="0.00" departDelay="0.00" arrival="131.00" arrivalLane="E1_0" arrivalPos="148.39" arrivalSpeed="12.62" duration="65.00" routeLength="296.24" waitingTime="28.00" waitingCount="1" stopTime="0.00" timeLoss="41.59" rerouteNo="1" devices="tripinfo_f_10.3 routing_f_10.3" vType="DEFAULT_VEHTYPE" speedFactor="0.93" vaporized=""/>
    <tripinfo id="f_1.1" depart="69.00" departLane="-E1_0" departPos="5.10" departSpeed="0.00" departDelay="0.00" arrival="135.00" arrivalLane="E4_0" arrivalPos="90.56" arrivalSpeed="15.89" duration="66.00" routeLength="299.56" waitingTime="38.00" waitingCount="1" stopTime="0.00" timeLoss="46.93" rerouteNo="1" devices="tripinfo_f_1.1 routing_f_1.1" vType="DEFAULT_VEHTYPE" speedFactor="1.15" vaporized=""/>
    <tripinfo id="f_8.3" depart="69.00" departLane="-E4_0" departPos="5.10" departSpeed="0.00" departDelay="0.00" arrival="135.00" arrivalLane="E3_0" arrivalPos="96.10" arrivalSpeed="13.94" duration="66.00" routeLength="294.58" waitingTime="23.00" waitingCount="1" stopTime="0.00" timeLoss="44.47" rerouteNo="1" devices="tripinfo_f_8.3 routing_f_8.3" vType="DEFAULT_VEHTYPE" speedFactor="1.01" vaporized=""/>
    <tripinfo id="f_1.2" depart="89.00" departLane="-E1_0" departPos="5.10" departSpeed="0.00" departDelay="0.00" arrival="138.00" arrivalLane="E4_0" arrivalPos="90.56" arrivalSpeed="13.36" duration="49.00" routeLength="299.56" waitingTime="18.00" waitingCount="1" stopTime="0.00" timeLoss="27.02" rerouteNo="1" devices="tripinfo_f_1.2 routing_f_1.2" vType="DEFAULT_VEHTYPE" speedFactor="1.03" vaporized=""/>
    <tripinfo id="f_1.3" depart="103.00" departLane="-E1_0" departPos="5.10" departSpeed="0.00" departDelay="0.00" arrival="140.00" arrivalLane="E4_0" arrivalPos="90.56" arrivalSpeed="14.94" duration="37.00" routeLength="299.56" waitingTime="5.00" waitingCount="1" stopTime="0.00" timeLoss="16.13" rerouteNo="1" devices="tripinfo_f_1.3 routing_f_1.3" vType="DEFAULT_VEHTYPE" speedFactor="1.09" vaporized=""/>
    <tripinfo id="f_3.1" depart="122.00" departLane="-E3_0" departPos="5.10" departSpeed="0.00" departDelay="4.00" arrival="149.00" arrivalLane="E5_0" arrivalPos="92.53" arrivalSpeed="13.16" duration="27.00" routeLength="298.84" waitingTime="0.00" waitingCount="0" stopTime="0.00" timeLoss="4.58" rerouteNo="1" devices="tripinfo_f_3.1 routing_f_3.1" vType="DEFAULT_VEHTYPE" speedFactor="1.00" vaporized=""/>
    <tripinfo id="f_4.1" depart="110.00" departLane="-E3_0" departPos="5.10" departSpeed="0.00" departDelay="0.00" arrival="164.00" arrivalLane="E4_0" arrivalPos="90.56" arrivalSpeed="10.95" duration="54.00" routeLength="284.31" waitingTime="21.00" waitingCount="1" stopTime="0.00" timeLoss="29.81" rerouteNo="1" devices="tripinfo_f_4.1 routing_f_4.1" vType="DEFAULT_VEHTYPE" speedFactor="0.88" vaporized=""/>
    <tripinfo id="f_0.2" depart="106.00" departLane="-E1_0" departPos="5.10" departSpeed="0.00" departDelay="0.00" arrival="166.00" arrivalLane="E5_0" arrivalPos="92.53" arrivalSpeed="13.61" duration="60.00" routeLength="288.61" waitingTime="27.00" waitingCount="1" stopTime="0.00" timeLoss="38.00" rerouteNo="1" devices="tripinfo_f_0.2 routing_f_0.2" vType="DEFAULT_VEHTYPE" speedFactor="1.00" vaporized=""/>
    <tripinfo id="f_5.9" depart="81.00" departLane="-E3_0" departPos="5.10" departSpeed="0.00" departDelay="0.00" arrival="167.00" arrivalLane="E1_0" arrivalPos="148.39" arrivalSpeed="16.31" duration="86.00" routeLength="393.01" waitingTime="51.00" waitingCount="1" stopTime="0.00" timeLoss="61.84" rerouteNo="1" devices="tripinfo_f_5.9 routing_f_5.9" vType="DEFAULT_VEHTYPE" speedFactor="1.18" vaporized=""/>
    <tripinfo id="f_2.3" depart="81.00" departLane="-E1_0" departPos="5.10" departSpeed="0.00" departDelay="0.00" arrival="170.00" arrivalLane="E3_0" arrivalPos="96.10" arrivalSpeed="13.27" duration="89.00" routeLength="395.94" waitingTime="49.00" waitingCount="1" stopTime="0.00" timeLoss="59.29" rerouteNo="1" devices="tripinfo_f_2.3 routing_f_2.3" vType="DEFAULT_VEHTYPE" speedFactor="0.97" vaporized=""/>
    <tripinfo id="f_2.4" depart="93.00" departLane="-E1_0" departPos="5.10" departSpeed="0.00" departDelay="0.00" arrival="172.00" arrivalLane="E3_0" arrivalPos="96.10" arrivalSpeed="14.20" duration="79.00" routeLength="395.94" waitingTime="41.00" waitingCount="1" stopTime="0.00" timeLoss="52.17" rerouteNo="1" devices="tripinfo_f_2.4 routing_f_2.4" vType="DEFAULT_VEHTYPE" speedFactor="1.09" vaporized=""/>
    <tripinfo id="f_5.10" depart="113.00" departLane="-E3_0" departPos="5.10" departSpeed="0.00" departDelay="2.00" arrival="176.00" arrivalLane="E1_0" arrivalPos="148.39" arrivalSpeed="11.38" duration="63.00" routeLength="393.01" waitingTime="19.00" waitingCount="1" stopTime="0.00" timeLoss="29.06" rerouteNo="1" devices="tripinfo_f_5.10 routing_f_5.10" vType="DEFAULT_VEHTYPE" speedFactor="0.85" vaporized=""/>
    <tripinfo id="f_2.5" depart="110.00" departLane="-E1_0" departPos="5.10" departSpeed="0.00" departDelay="0.00" arrival="177.00" arrivalLane="E3_0" arrivalPos="96.10" arrivalSpeed="12.49" duration="67.00" routeLength="395.94" waitingTime="25.00" waitingCount="1" stopTime="0.00" timeLoss="35.24" rerouteNo="1" devices="tripinfo_f_2.5 routing_f_2.5" vType="DEFAULT_VEHTYPE" speedFactor="0.90" vaporized=""/>
    <tripinfo id="f_5.11" depart="116.00" departLane="-E3_0" departPos="5.10" departSpeed="0.00" departDelay="3.00" arrival="178.00" arrivalLane="E1_0" arrivalPos="148.39" arrivalSpeed="11.02" duration="62.00" routeLength="393.01" waitingTime="18.00" waitingCount="1" stopTime="0.00" timeLoss="28.27" rerouteNo="1" devices="tripinfo_f_5.11 routing_f_5.11" vType="DEFAULT_VEHTYPE" speedFactor="0.85" vaporized=""/>
    <tripinfo id="f_5.12" depart="119.00" departLane="-E3_0" departPos="5.10" departSpeed="0.00" departDelay="5.00" arrival="179.00" arrivalLane="E1_0" arrivalPos="148.39" arrivalSpeed="13.40" duration="60.00" routeLength="393.01" waitingTime="16.00" waitingCount="1" stopTime="0.00" timeLoss="35.79" rerouteNo="1" devices="tripinfo_f_5.12 routing_f_5.12" vType="DEFAULT_VEHTYPE" speedFactor="1.17" vaporized=""/>
    <tripinfo id="f_2.6" depart="127.00" departLane="-E1_0" departPos="5.10" departSpeed="0.00" departDelay="0.00" arrival="179.00" arrivalLane="E3_0" arrivalPos="96.10" arrivalSpeed="14.47" duration="52.00" routeLength="395.94" waitingTime="13.00" waitingCount="1" stopTime="0.00" timeLoss="26.05" rerouteNo="1" devices="tripinfo_f_2.6 routing_f_2.6" vType="DEFAULT_VEHTYPE" speedFactor="1.12" vaporized=""/>
    <tripinfo id="f_5.13" depart="125.00" departLane="-E3_0" departPos="5.10" departSpeed="0.00" departDelay="7.00" arrival="181.00" arrivalLane="E1_0" arrivalPos="148.39" arrivalSpeed="12.82" duration="56.00" routeLength="393.01" waitingTime="14.00" waitingCount="1" stopTime="0.00" timeLoss="27.31" rerouteNo="1" devices="tripinfo_f_5.13 routing_f_5.13" vType="DEFAULT_VEHTYPE" speedFactor="1.00" vaporized=""/>
    <tripinfo id="f_2.7" depart="130.00" departLane="-E1_0" departPos="5.10" departSpeed="0.00" departDelay="2.00" arrival="181.00" arrivalLane="E3_0" arrivalPos="96.10" arrivalSpeed="13.71" duration="51.00" routeLength="395.94" waitingTime="10.00" waitingCount="1" stopTime="0.00" timeLoss="22.32" rerouteNo="1" devices="tripinfo_f_2.7 routing_f_2.7" vType="DEFAULT_VEHTYPE" speedFactor="1.02" vaporized=""/>
    <tripinfo id="f_5.14" depart="128.00" departLane="-E3_0" departPos="5.10" departSpeed="0.00" departDelay="5.00" arrival="183.00" arrivalLane="E1_0" arrivalPos="148.39" arrivalSpeed="15.52" duration="55.00" routeLength="393.01" waitingTime="12.00" waitingCount="1" stopTime="0.00" timeLoss="29.60" rerouteNo="1" devices="tripinfo_f_5.14 routing_f_5.14" vType="DEFAULT_VEHTYPE" speedFactor="1.14" vaporized=""/>
    <tripinfo id="f_4.2" depart="143.00" departLane="-E3_0" departPos="5.10" departSpeed="0.00" departDelay="4.00" arrival="184.00" arrivalLane="E4_0" arrivalPos="90.56" arrivalSpeed="11.70" duration="41.00" routeLength="284.31" waitingTime="4.00" waitingCount="1" stopTime="0.00" timeLoss="17.60" rerouteNo="1" devices="tripinfo_f_4.2 routing_f_4.2" vType="DEFAULT_VEHTYPE" speedFactor="0.91" vaporized=""/>
    <tripinfo id="f_5.15" depart="131.00" departLane="-E3_0" departPos="5.10" departSpeed="0.00" departDelay="7.00" arrival="185.00" arrivalLane="E1_0" arrivalPos="148.39" arrivalSpeed="14.17" duration="54.00" routeLength="393.01" waitingTime="11.00" waitingCount="1" stopTime="0.00" timeLoss="25.42" rerouteNo="1" devices="tripinfo_f_5.15 routing_f_5.15" vType="DEFAULT_VEHTYPE" speedFactor="1.02" vaporized=""/>
    <tripinfo id="f_2.8" depart="141.00" departLane="-E1_0" departPos="5.10" departSpeed="0.00" departDelay="0.00" arrival="185.00" arrivalLane="E3_0" arrivalPos="96.10" arrivalSpeed="11.72" duration="44.00" routeLength="395.94" waitingTime="0.00" waitingCount="0" stopTime="0.00" timeLoss="12.07" rerouteNo="1" devices="tripinfo_f_2.8 routing_f_2.8" vType="DEFAULT_VEHTYPE" speedFactor="0.91" vaporized=""/>
    <tripinfo id="f_5.16" depart="134.00" departLane="-E3_0" departPos="5.10" departSpeed="0.00" departDelay="5.00" arrival="186.00" arrivalLane="E1_0" arrivalPos="148.39" arrivalSpeed="13.56" duration="52.00" routeLength="393.01" waitingTime="8.00" waitingCount="1" stopTime="0.00" timeLoss="23.17" rerouteNo="1" devices="tripinfo_f_5.16 routing_f_5.16" vType="DEFAULT_VEHTYPE" speedFactor="0.99" vaporized=""/>
    <tripinfo id="f_2.9" depart="152.00" departLane="-E1_0" departPos="5.10" departSpeed="0.00" departDelay="0.00" arrival="187.00" arrivalLane="E3_0" arrivalPos="96.10" arrivalSpeed="12.54" duration="35.00" routeLength="395.94" waitingTime="0.00" waitingCount="0" stopTime="0.00" timeLoss="4.59" rerouteNo="1" devices="tripinfo_f_2.9 routing_f_2.9" vType="DEFAULT_VEHTYPE" speedFactor="0.96" vaporized=""/>
    <tripinfo id="f_5.17" depart="137.00" departLane="-E3_0" departPos="5.10" departSpeed="0.00" departDelay="5.00" arrival="188.00" arrivalLane="E1_0" arrivalPos="148.39" arrivalSpeed="12.33" duration="51.00" routeLength="393.01" waitingTime="6.00" waitingCount="1" stopTime="0.00" timeLoss="20.64" rerouteNo="1" devices="tripinfo_f_5.17 routing_f_5.17" vType="DEFAULT_VEHTYPE" speedFactor="0.94" vaporized=""/>
    <tripinfo id="f_2.10" depart="155.00" departLane="-E1_0" departPos="5.10" departSpeed="0.00" departDelay="2.00" arrival="189.00" arrivalLane="E3_0" arrivalPos="96.10" arrivalSpeed="13.28" duration="34.00" routeLength="395.94" waitingTime="0.00" waitingCount="0" stopTime="0.00" timeLoss="4.18" rerouteNo="1" devices="tripinfo_f_2.10 routing_f_2.10" vType="DEFAULT_VEHTYPE" speedFactor="0.98" vaporized=""/>
    <tripinfo id="f_5.18" depart="140.00" departLane="-E3_0" departPos="5.10" departSpeed="0.00" departDelay="4.00" arrival="190.00" arrivalLane="E1_0" arrivalPos="148.39" arrivalSpeed="11.81" duration="50.00" routeLength="393.01" waitingTime="5.00" waitingCount="1" stopTime="0.00" timeLoss="17.92" rerouteNo="1" devices="tripinfo_f_5.18 routing_f_5.18" vType="DEFAULT_VEHTYPE" speedFactor="0.88" vaporized=""/>
    <tripinfo id="f_5.19" depart="146.00" departLane="-E3_0" departPos="5.10" departSpeed="0.00" departDelay="2.00" arrival="193.00" arrivalLane="E1_0" arrivalPos="148.39" arrivalSpeed="13.05" duration="47.00" routeLength="393.01" waitingTime="4.00" waitingCount="1" stopTime="0.00" timeLoss="18.91" rerouteNo="1" devices="tripinfo_f_5.19 routing_f_5.19" vType="DEFAULT_VEHTYPE" speedFactor="1.02" vaporized=""/>
    <tripinfo id="f_5.20" depart="160.00" departLane="-E3_0" departPos="5.10" departSpeed="0.00" departDelay="0.00" arrival="195.00" arrivalLane="E1_0" arrivalPos="148.39" arrivalSpeed="14.87" duration="35.00" routeLength="393.01" waitingTime="0.00" waitingCount="0" stopTime="0.00" timeLoss="8.21" rerouteNo="1" devices="tripinfo_f_5.20 routing_f_5.20" vType="DEFAULT_VEHTYPE" speedFactor="1.09" vaporized=""/>
    <tripinfo id="f_5.21" depart="163.00" departLane="-E3_0" departPos="5.10" departSpeed="0.00" departDelay="2.00" arrival="197.00" arrivalLane="E1_0" arrivalPos="148.39" arrivalSpeed="13.56" duration="34.00" routeLength="393.01" waitingTime="0.00" waitingCount="0" stopTime="0.00" timeLoss="5.79" rerouteNo="1" devices="tripinfo_f_5.21 routing_f_5.21" vType="DEFAULT_VEHTYPE" speedFactor="1.03" vaporized=""/>
    <tripinfo id="f_5.22" depart="168.00" departLane="-E3_0" departPos="5.10" departSpeed="0.00" departDelay="0.00" arrival="198.00" arrivalLane="E1_0" arrivalPos="148.39" arrivalSpeed="14.36" duration="30.00" routeLength="393.01" waitingTime="0.00" waitingCount="0" stopTime="0.00" timeLoss="5.16" rerouteNo="1" devices="tripinfo_f_5.22 routing_f_5.22" vType="DEFAULT_VEHTYPE" speedFactor="1.15" vaporized=""/>
    <tripinfo id="f_2.11" depart="167.00" departLane="-E1_0" departPos="5.10" departSpeed="0.00" departDelay="3.00" arrival="201.00" arrivalLane="E3_0" arrivalPos="96.10" arrivalSpeed="12.51" duration="34.00" routeLength="395.94" waitingTime="0.00" waitingCount="0" stopTime="0.00" timeLoss="4.17" rerouteNo="1" devices="tripinfo_f_2.11 routing_f_2.11" vType="DEFAULT_VEHTYPE" speedFactor="0.97" vaporized=""/>
    <tripinfo id="f_2.12" depart="172.00" departLane="-E1_0" departPos="5.10" departSpeed="0.00" departDelay="0.00" arrival="205.00" arrivalLane="E3_0" arrivalPos="96.10" arrivalSpeed="13.07" duration="33.00" routeLength="395.94" waitingTime="0.00" waitingCount="0" stopTime="0.00" timeLoss="3.77" rerouteNo="1" devices="tripinfo_f_2.12 routing_f_2.12" vType="DEFAULT_VEHTYPE" speedFactor="0.98" vaporized=""/>
    <tripinfo id="f_6.1" depart="81.00" departLane="-E4_0" departPos="5.10" departSpeed="0.00" departDelay="0.00" arrival="207.00" arrivalLane="E5_0" arrivalPos="92.53" arrivalSpeed="14.10" duration="126.00" routeLength="196.65" waitingTime="89.00" waitingCount="2" stopTime="0.00" timeLoss="112.93" rerouteNo="1" devices="tripinfo_f_6.1 routing_f_6.1" vType="DEFAULT_VEHTYPE" speedFactor="1.10" vaporized=""/>
    <tripinfo id="f_5.23" depart="174.00" departLane="-E3_0" departPos="5.10" departSpeed="0.00" departDelay="0.00" arrival="207.00" arrivalLane="E1_0" arrivalPos="148.39" arrivalSpeed="13.93" duration="33.00" routeLength="393.01" waitingTime="0.00" waitingCount="0" stopTime="0.00" timeLoss="4.14" rerouteNo="1" devices="tripinfo_f_5.23 routing_f_5.23" vType="DEFAULT_VEHTYPE" speedFactor="1.01" vaporized=""/>
    <tripinfo id="f_11.5" depart="98.00" departLane="-E5_0" departPos="5.10" departSpeed="0.00" departDelay="0.00" arrival="215.00" arrivalLane="E3_0" arrivalPos="96.10" arrivalSpeed="13.22" duration="117.00" routeLength="291.05" waitingTime="81.00" waitingCount="2" stopTime="0.00" timeLoss="96.49" rerouteNo="1" devices="tripinfo_f_11.5 routing_f_11.5" vType="DEFAULT_VEHTYPE" speedFactor="1.04" vaporized=""/>
    <tripinfo id="f_10.4" depart="126.00" departLane="-E5_0" departPos="5.10" departSpeed="0.00" departDelay="0.00" arrival="217.00" arrivalLane="E1_0" arrivalPos="148.39" arrivalSpeed="13.99" duration="91.00" routeLength="296.24" waitingTime="60.00" waitingCount="1" stopTime="0.00" timeLoss="70.58" rerouteNo="1" devices="tripinfo_f_10.4 routing_f_10.4" vType="DEFAULT_VEHTYPE" speedFactor="1.08" vaporized=""/>
    <tripinfo id="f_8.4" depart="86.00" departLane="-E4_0" departPos="5.10" departSpeed="0.00" departDelay="0.00" arrival="219.00" arrivalLane="E3_0" arrivalPos="96.10" arrivalSpeed="11.77" duration="133.00" routeLength="294.58" waitingTime="85.00" waitingCount="2" stopTime="0.00" timeLoss="108.99" rerouteNo="1" devices="tripinfo_f_8.4 routing_f_8.4" vType="DEFAULT_VEHTYPE" speedFactor="0.90" vaporized=""/>